# vtk DataFile Version 3.1
Surface Graph
ASCII
DATASET UNSTRUCTURED_GRID

POINTS 1 FLOAT
0.000000 -0.000000 2.000000

CELLS 0 0


CELL_TYPES 0 

POINT_DATA 1
SCALARS gaussianCurvature FLOAT 1
LOOKUP_TABLE default
-nan

